LAMMPS data file. msi2lmp v3.9.9 / 05 Nov 2018 / CGCMM for Nylon66

   5850 atoms
   5800 bonds
  10850 angles
  15500 dihedrals
    550 impropers

   9 atom types
  11 bond types
  20 angle types
  27 dihedral types
   3 improper types

     0.095869721    40.915969721 xlo xhi
     0.434318137    41.254418137 ylo yhi
     0.650848729    41.470948729 zlo zhi

Masses

   1  14.006700 # n3
   2  12.011150 # c2
   3  14.006700 # n
   4  12.011150 # c'
   5  15.999400 # o'
   6  15.999400 # oh
   7   1.007970 # hn
   8   1.007970 # h
   9   1.007970 # ho

Pair Coeffs # lj/cut/coul/long

   1   0.1669999743   3.5012320066 # n3
   2   0.0389999952   3.8754094636 # c2
   3   0.1669999743   3.5012320066 # n
   4   0.1479999981   3.6170487995 # c'
   5   0.2280000124   2.8597848722 # o'
   6   0.2280000124   2.8597848722 # oh
   7   0.0000000000   0.0000000000 # hn
   8   0.0380000011   2.4499714540 # h
   9   0.0000000000   0.0000000000 # ho

Bond Coeffs # harmonic

   1   356.5988     1.4700 # n3-c2
   2   457.4592     1.0260 # n3-hn
   3   322.7158     1.5260 # c2-c2
   4   340.6175     1.1050 # c2-h
   5   377.5752     1.4600 # c2-n
   6   388.0000     1.3200 # n-c'
   7   483.4512     1.0260 # n-hn
   8   283.0924     1.5200 # c2-c'
   9   615.3220     1.2300 # c'-o'
  10   400.0000     1.3700 # c'-oh
  11   540.6336     0.9600 # oh-ho

Angle Coeffs # harmonic

   1    41.6000   110.0000 # c2-n3-hn
   2    36.0000   105.5000 # hn-n3-hn
   3    50.0000   109.5000 # n3-c2-c2
   4    57.3000   109.5000 # n3-c2-h
   5    44.4000   110.0000 # c2-c2-h
   6    39.5000   106.4000 # h-c2-h
   7    46.6000   110.5000 # c2-c2-c2
   8    50.0000   109.5000 # c2-c2-n
   9    51.5000   109.5000 # n-c2-h
  10   111.0000   118.0000 # c2-n-c'
  11    35.0000   122.0000 # c2-n-hn
  12    37.5000   115.0000 # c'-n-hn
  13    53.5000   114.1000 # c2-c'-n
  14    68.0000   120.0000 # n-c'-o'
  15    68.0000   120.0000 # c2-c'-o'
  16    46.6000   110.5000 # c2-c2-c'
  17    45.0000   109.5000 # c'-c2-h
  18   122.8000   110.0000 # c2-c'-oh
  19   145.0000   123.0000 # o'-c'-oh
  20    50.0000   112.0000 # c'-oh-ho

Dihedral Coeffs # harmonic

  1     0.1333   1   3 # hn-n3-c2-c2
  2     0.1333   1   3 # hn-n3-c2-h
  3     0.1581   1   3 # n3-c2-c2-c2
  4     0.1581   1   3 # n3-c2-c2-h
  5     0.1581   1   3 # c2-c2-c2-h
  6     0.1581   1   3 # h-c2-c2-h
  7     0.1581   1   3 # c2-c2-c2-c2
  8     0.1581   1   3 # c2-c2-c2-n
  9     0.1581   1   3 # n-c2-c2-h
 10     0.0000   1   0 # c2-c2-n-c'
 11     0.0000   1   0 # c2-c2-n-hn
 12     0.0000   1   0 # h-c2-n-c'
 13     0.0000   1   0 # h-c2-n-hn
 14     3.2000  -1   2 # c2-n-c'-c2
 15     3.8000  -1   2 # c2-n-c'-o'
 16     1.2000  -1   2 # hn-n-c'-c2
 17     1.8000  -1   2 # hn-n-c'-o'
 18     0.0000   1   0 # c2-c2-c'-n
 19     0.0000   1   0 # h-c2-c'-n
 20     0.0000   1   0 # c2-c2-c'-o'
 21     0.0000   1   0 # h-c2-c'-o'
 22     0.1581   1   3 # c2-c2-c2-c'
 23     0.1581   1   3 # c'-c2-c2-h
 24     0.0000   1   0 # c2-c2-c'-oh
 25     0.0000   1   0 # h-c2-c'-oh
 26     2.2500  -1   2 # c2-c'-oh-ho
 27     2.2500  -1   2 # o'-c'-oh-ho

Improper Coeffs # cvff

    1     0.0500  -1   2 # c'-n-c2-hn
    2    10.0000  -1   2 # c2-c'-n-o'
    3    11.6000  -1   2 # c2-c'-o'-oh

Atoms # full

      1      1   1 -0.500000    40.706997727    16.250074479    28.594035249  -1   0  -1 # n3
      2      1   2  0.020000    40.410386731    15.717006335    27.247929545  -1   0  -1 # c2
      3      1   2 -0.200000     0.378658905    16.501442836    26.223900701   0   0  -1 # c2
      4      1   2 -0.200000     1.852805358    16.281272770    26.011082671   0   0  -1 # c2
      5      1   2 -0.200000     2.426015795    17.039341196    24.851672108   0   0  -1 # c2
      6      1   2 -0.200000     3.681772660    16.478516668    24.178677744   0   0  -1 # c2
      7      1   2  0.020000     4.989441789    17.066345661    24.792071792   0   0  -1 # c2
      8      1   3 -0.500000     6.061459166    16.367364245    24.394060686   0   0  -1 # n
      9      1   4  0.380000     7.284392749    16.797626441    24.611292589   0   0  -1 # c'
     10      1   2 -0.200000     7.811793778    18.070158340    25.390198107   0   0  -1 # c2
     11      1   2 -0.200000     8.146572067    18.015268773    26.871721769   0   0  -1 # c2
     12      1   2 -0.200000     8.913809440    19.300871253    27.168435589   0   0  -1 # c2
     13      1   2 -0.200000     9.458139746    19.413336150    28.615152976   0   0  -1 # c2
     14      1   4  0.380000    10.347326215    20.583613502    28.888180716   0   0  -1 # c'
     15      1   5 -0.380000     8.226879868    16.010019045    24.322444652   0   0  -1 # o'
     16      1   5 -0.380000     9.991915107    21.541027802    29.568590670   0   0  -1 # o'
     17      1   3 -0.500000    11.616655278    20.388769699    28.745850586   0   0  -1 # n
     18      1   2  0.020000    12.755081600    21.306178910    29.263136490   0   0  -1 # c2
     19      1   2 -0.200000    13.998309998    20.858637737    28.263836068   0   0  -1 # c2
     20      1   2 -0.200000    15.168303706    21.767739339    28.607230957   0   0  -1 # c2
     21      1   2 -0.200000    16.545215918    21.303500435    27.947484848   0   0  -1 # c2
     22      1   2 -0.200000    16.538219142    21.644267345    26.444825795   0   0  -1 # c2
     23      1   2  0.020000    17.576019816    20.729986612    25.660879396   0   0  -1 # c2
     24      1   3 -0.500000    18.003491002    21.438404730    24.463397359   0   0  -1 # n
     25      1   4  0.380000    18.302277296    20.935245366    23.304268337   0   0  -1 # c'
     26      1   2 -0.200000    19.378630942    21.684439845    22.338716713   0   0  -1 # c2
     27      1   2 -0.200000    20.545140946    22.350622215    23.025358385   0   0  -1 # c2
     28      1   2 -0.200000    20.952425811    23.629028949    22.189611483   0   0  -1 # c2
     29      1   2 -0.200000    21.710613014    23.408379530    20.867745398   0   0  -1 # c2
     30      1   4  0.380000    21.825502219    24.794684037    20.110173356   0   0  -1 # c'
     31      1   5 -0.380000    17.826714183    19.814493803    22.856845995   0   0  -1 # o'
     32      1   5 -0.380000    21.314851133    25.771482983    20.534919132   0   0  -1 # o'
     33      1   3 -0.500000    22.457779510    24.579053302    18.930817638   0   0  -1 # n
     34      1   2  0.020000    22.554918278    25.825040994    17.992616370   0   0  -1 # c2
     35      1   2 -0.200000    22.804321868    25.587440083    16.486693831   0   0  -1 # c2
     36      1   2 -0.200000    22.910851753    26.933106851    15.812659444   0   0  -1 # c2
     37      1   2 -0.200000    23.721655558    26.798582463    14.416837828   0   0  -1 # c2
     38      1   2 -0.200000    23.748309169    28.266792064    13.892349415   0   0  -1 # c2
     39      1   2  0.020000    23.997150218    28.456602890    12.398359366   0   0  -1 # c2
     40      1   3 -0.500000    23.251142574    29.686396815    12.038125532   0   0  -1 # n
     41      1   4  0.380000    22.262877652    29.788975043    11.219849577   0   0  -1 # c'
     42      1   2 -0.200000    21.541786433    31.145890740    11.057402455   0   0  -1 # c2
     43      1   2 -0.200000    20.346872907    31.555495162    11.929755929   0   0  -1 # c2
     44      1   2 -0.200000    20.637242418    31.314381387    13.412236424   0   0  -1 # c2
     45      1   2 -0.200000    19.594258656    32.119607108    14.341581690   0   0  -1 # c2
     46      1   4  0.410000    19.411178092    31.753375147    15.804605491   0   0  -1 # c'
     47      1   5 -0.380000    21.939233091    28.811510343    10.478677554   0   0  -1 # o'
     48      1   5 -0.380000    18.411239934    32.040396372    16.368172609   0   0  -1 # o'
     49      1   6 -0.380000    20.399499925    31.033270684    16.425661212   0   0  -1 # oh
     50      1   7  0.140000     0.866538521    16.280545597    28.544904871   0   0  -1 # hn
     51      1   7  0.140000    40.629945821    17.230312053    28.612653934  -1   0  -1 # hn
     52      1   8  0.100000    39.317868032    15.598514994    27.100901136  -1   0  -1 # h
     53      1   8  0.100000    40.749051442    14.618842685    27.284630454  -1   0  -1 # h
     54      1   8  0.100000     0.308301333    17.484258175    26.407185313   0   0  -1 # h
     55      1   8  0.100000    40.725311235    16.268131635    25.318986973  -1   0  -1 # h
     56      1   8  0.100000     2.102086588    15.172493667    25.847745512   0   0  -1 # h
     57      1   8  0.100000     2.271341586    16.736349739    26.905763456   0   0  -1 # h
     58      1   8  0.100000     2.476198789    18.158776527    25.002462566   0   0  -1 # h
     59      1   8  0.100000     1.661970010    17.180599238    24.035834198   0   0  -1 # h
     60      1   8  0.100000     3.651577497    16.695731855    23.108517621   0   0  -1 # h
     61      1   8  0.100000     3.729177360    15.324924218    24.196273447   0   0  -1 # h
     62      1   8  0.100000     5.192672142    17.094505743    25.909369776   0   0  -1 # h
     63      1   8  0.100000     4.970216767    18.155831165    24.646895184   0   0  -1 # h
     64      1   7  0.280000     5.933877250    15.658691413    23.665681748   0   0  -1 # hn
     65      1   8  0.100000     7.109504991    18.813199989    25.131944652   0   0  -1 # h
     66      1   8  0.100000     8.775223002    18.217310661    24.867892228   0   0  -1 # h
     67      1   8  0.100000     8.687472397    17.157179746    27.349689660   0   0  -1 # h
     68      1   8  0.100000     7.294093302    18.103809511    27.446932075   0   0  -1 # h
     69      1   8  0.100000     8.336450390    20.267705024    26.888186588   0   0  -1 # h
     70      1   8  0.100000     9.801360167    19.432885079    26.548244805   0   0  -1 # h
     71      1   8  0.100000    10.011150141    18.506402783    28.944249616   0   0  -1 # h
     72      1   8  0.100000     8.746674847    19.516966647    29.436653251   0   0  -1 # h
     73      1   7  0.280000    11.789486776    19.746775717    27.902189522   0   0  -1 # hn
     74      1   8  0.100000    12.847534115    21.078200779    30.356759197   0   0  -1 # h
     75      1   8  0.100000    12.488929777    22.368406927    29.086810112   0   0  -1 # h
     76      1   8  0.100000    13.732291931    20.929138544    27.276317059   0   0  -1 # h
     77      1   8  0.100000    14.362553045    19.808227693    28.468909429   0   0  -1 # h
     78      1   8  0.100000    15.317836389    21.798240214    29.716951337   0   0  -1 # h
     79      1   8  0.100000    14.934322141    22.804735833    28.364114486   0   0  -1 # h
     80      1   8  0.100000    16.651903071    20.226212080    28.199112423   0   0  -1 # h
     81      1   8  0.100000    17.388586200    21.679778881    28.617441451   0   0  -1 # h
     82      1   8  0.100000    16.773911862    22.736389511    26.412009772   0   0  -1 # h
     83      1   8  0.100000    15.566539567    21.377300069    26.036981407   0   0  -1 # h
     84      1   8  0.100000    17.258599946    19.628908917    25.440607658   0   0  -1 # h
     85      1   8  0.100000    18.448049292    20.552869464    26.241362885   0   0  -1 # h
     86      1   7  0.280000    18.070685676    22.536026745    24.491907896   0   0  -1 # hn
     87      1   8  0.100000    18.677260697    22.455426343    21.805202051   0   0  -1 # h
     88      1   8  0.100000    19.730970647    21.056048666    21.529465472   0   0  -1 # h
     89      1   8  0.100000    21.369078567    21.624902890    22.936112500   0   0  -1 # h
     90      1   8  0.100000    20.305185895    22.711696117    24.061901679   0   0  -1 # h
     91      1   8  0.100000    21.557292428    24.242991975    22.988641370   0   0  -1 # h
     92      1   8  0.100000    19.953222934    24.224467975    22.025388435   0   0  -1 # h
     93      1   8  0.100000    21.042831213    22.634781353    20.238942977   0   0  -1 # h
     94      1   8  0.100000    22.724284082    22.973565453    21.028605541   0   0  -1 # h
     95      1   7  0.280000    22.725878635    23.597649610    18.779517766   0   0  -1 # hn
     96      1   8  0.100000    23.464190613    26.361643443    18.404748715   0   0  -1 # h
     97      1   8  0.100000    21.761639442    26.559087506    18.133826419   0   0  -1 # h
     98      1   8  0.100000    22.019875411    24.951606706    16.000792472   0   0  -1 # h
     99      1   8  0.100000    23.761036901    24.939270420    16.490957783   0   0  -1 # h
    100      1   8  0.100000    23.478581728    27.643385829    16.424136672   0   0  -1 # h
    101      1   8  0.100000    21.833701445    27.174011101    15.671687538   0   0  -1 # h
    102      1   8  0.100000    23.187263224    26.005832759    13.854999582   0   0  -1 # h
    103      1   8  0.100000    24.737709645    26.528514644    14.798894504   0   0  -1 # h
    104      1   8  0.100000    24.568620002    28.676935859    14.384208047   0   0  -1 # h
    105      1   8  0.100000    22.724888677    28.803536982    14.194953419   0   0  -1 # h
    106      1   8  0.100000    23.715516613    27.490570133    11.748995028   0   0  -1 # h
    107      1   8  0.100000    25.120040712    28.645954475    12.290999849   0   0  -1 # h
    108      1   7  0.280000    23.295575946    30.557167720    12.609016237   0   0  -1 # hn
    109      1   8  0.100000    21.104415359    31.249035153    10.043282522   0   0  -1 # h
    110      1   8  0.100000    22.383854506    31.806192900    10.977817137   0   0  -1 # h
    111      1   8  0.100000    19.611210570    30.758315908    11.651963855   0   0  -1 # h
    112      1   8  0.100000    20.148507996    32.561429277    11.669611886   0   0  -1 # h
    113      1   8  0.100000    21.717436701    31.762121705    13.596118584   0   0  -1 # h
    114      1   8  0.100000    20.657985952    30.217331324    13.515104216   0   0  -1 # h
    115      1   8  0.100000    18.615018752    32.021184088    13.788137200   0   0  -1 # h
    116      1   8  0.100000    19.690895528    33.224663823    14.225264284   0   0  -1 # h
    117      1   9  0.350000    19.894974539    30.563466430    17.035919764   0   0  -1 # ho
    118      2   1 -0.500000     5.501846087    21.308725039    26.188406593   1   0  -1 # n3
    119      2   2  0.020000     4.741220125    22.514454299    26.607770013   1   0  -1 # c2
    120      2   2 -0.200000     3.669310253    22.835328335    25.503408792   1   0  -1 # c2
    121      2   2 -0.200000     2.715871606    24.045933642    25.844391593   1   0  -1 # c2
    122      2   2 -0.200000     1.992262425    24.610456170    24.674726680   1   0  -1 # c2
    123      2   2 -0.200000     0.921463524    25.578587330    25.019959728   1   0  -1 # c2
    124      2   2  0.020000     1.500034696    26.918938048    25.523624742   1   0  -1 # c2
    125      2   3 -0.500000     0.469136665    27.931686428    25.523831903   1   0  -1 # n
    126      2   4  0.380000     0.834643961    29.287739446    25.416769495   1   0  -1 # c'
    127      2   2 -0.200000    40.473878280    30.204605136    25.473043956   0   0  -1 # c2
    128      2   2 -0.200000    40.529839530    31.621355907    24.875905573   0   0  -1 # c2
    129      2   2 -0.200000    39.257001910    32.410604489    25.248452965   0   0  -1 # c2
    130      2   2 -0.200000    39.006119724    33.764690484    24.667938249   0   0  -1 # c2
    131      2   4  0.380000    37.443235006    34.129175863    24.844984348   0   0  -1 # c'
    132      2   5 -0.380000     2.028614487    29.532233172    25.104309467   1   0  -1 # o'
    133      2   5 -0.380000    36.485238291    33.560974681    24.351936680   0   0  -1 # o'
    134      2   3 -0.500000    37.213015611    35.040590102    25.731259802   0   0  -1 # n
    135      2   2  0.020000    35.794744971    35.337181607    26.093857117   0   0  -1 # c2
    136      2   2 -0.200000    35.706302176    36.578900720    27.084677036   0   0  -1 # c2
    137      2   2 -0.200000    34.119889010    37.200167709    27.077390730   0   0  -1 # c2
    138      2   2 -0.200000    33.595723206    38.004282858    25.954674761   0   0  -1 # c2
    139      2   2 -0.200000    32.295973574    38.878098693    26.164885742   0   0  -1 # c2
    140      2   2  0.020000    32.449886428    40.093669084    26.978309726   0   0  -1 # c2
    141      2   3 -0.500000    33.134104016    41.085625918    26.064948573   0   0  -1 # n
    142      2   4  0.380000    33.444827114     1.464090448    26.576424594   0   1  -1 # c'
    143      2   2 -0.200000    33.876439391     2.451855615    25.472010735   0   1  -1 # c2
    144      2   2 -0.200000    34.956966609     3.403401537    25.808402928   0   1  -1 # c2
    145      2   2 -0.200000    34.639245012     4.567296557    26.626395660   0   1  -1 # c2
    146      2   2 -0.200000    35.761995852     5.587535500    26.377300979   0   1  -1 # c2
    147      2   4  0.380000    35.504489552     6.869667064    27.311904780   0   1  -1 # c'
    148      2   5 -0.380000    33.215345235     1.774619887    27.766324591   0   1  -1 # o'
    149      2   5 -0.380000    34.983746139     7.901720749    26.727803526   0   1  -1 # o'
    150      2   3 -0.500000    35.750760316     6.739159776    28.602848379   0   1  -1 # n
    151      2   2  0.020000    35.193814128     7.797556416    29.581851493   0   1  -1 # c2
    152      2   2 -0.200000    34.636381017     7.157720337    30.882868555   0   1  -1 # c2
    153      2   2 -0.200000    33.996189080     8.227088234    31.710248256   0   1  -1 # c2
    154      2   2 -0.200000    35.175586181     8.984541931    32.441487483   0   1  -1 # c2
    155      2   2 -0.200000    35.579045542     8.765354946    33.897984929   0   1  -1 # c2
    156      2   2  0.020000    34.527350382     8.504187840    35.000270773   0   1  -1 # c2
    157      2   3 -0.500000    35.440184560     8.531537023    36.226744874   0   1  -1 # n
    158      2   4  0.380000    35.017885792     8.962543987    37.396494610   0   1  -1 # c'
    159      2   2 -0.200000    36.044340057     8.967949695    38.559671344   0   1  -1 # c2
    160      2   2 -0.200000    36.981898118    10.063384824    38.534050885   0   1  -1 # c2
    161      2   2 -0.200000    37.445652652    10.473442902    39.835791120   0   1  -1 # c2
    162      2   2 -0.200000    38.534964348     9.452900872    40.394016815   0   1  -1 # c2
    163      2   4  0.410000    39.108989734     9.849703263     0.962390746   0   1   0 # c'
    164      2   5 -0.380000    33.834785655     9.177146097    37.589216957   0   1  -1 # o'
    165      2   5 -0.380000    39.439604877    11.002281322     1.308921784   0   1   0 # o'
    166      2   6 -0.380000    39.423917315     8.813166536     1.684189235   0   1   0 # oh
    167      2   7  0.140000     5.944787609    21.284151641    25.265889524   1   0  -1 # hn
    168      2   7  0.140000     6.342911758    21.176392388    26.791414131   1   0  -1 # hn
    169      2   8  0.100000     5.466622798    23.250247265    26.942372623   1   0  -1 # h
    170      2   8  0.100000     4.160323183    22.241312617    27.490037111   1   0  -1 # h
    171      2   8  0.100000     3.131894724    21.879832477    25.645362547   1   0  -1 # h
    172      2   8  0.100000     3.972967149    22.865913019    24.476281538   1   0  -1 # h
    173      2   8  0.100000     3.373841313    24.821851279    26.341013099   1   0  -1 # h
    174      2   8  0.100000     2.058941765    23.749392589    26.683721714   1   0  -1 # h
    175      2   8  0.100000     1.561550996    23.648173206    24.329983541   1   0  -1 # h
    176      2   8  0.100000     2.687152936    24.915181076    23.796031713   1   0  -1 # h
    177      2   8  0.100000     0.175279755    25.367329532    25.789845357   1   0  -1 # h
    178      2   8  0.100000     0.442276463    25.614227745    24.039327526   1   0  -1 # h
    179      2   8  0.100000     2.450708779    27.313813360    24.998338241   1   0  -1 # h
    180      2   8  0.100000     1.918681554    26.700267360    26.502255854   1   0  -1 # h
    181      2   7  0.280000    40.248747482    27.642500783    25.559518251   0   0  -1 # hn
    182      2   8  0.100000    40.424586808    30.283209836    26.552854809   0   0  -1 # h
    183      2   8  0.100000    39.616371383    29.625432482    25.211117681   0   0  -1 # h
    184      2   8  0.100000    40.477115075    31.568190111    23.748268784   0   0  -1 # h
    185      2   8  0.100000     0.649169108    31.986552318    25.180473910   1   0  -1 # h
    186      2   8  0.100000    39.230950369    32.450108559    26.337158451   0   0  -1 # h
    187      2   8  0.100000    38.387214241    31.644053181    24.977210145   0   0  -1 # h
    188      2   8  0.100000    39.236117862    33.631616206    23.651917784   0   0  -1 # h
    189      2   8  0.100000    39.724043144    34.482008733    25.131928322   0   0  -1 # h
    190      2   7  0.280000    38.072439247    35.298257789    26.225047971   0   0  -1 # hn
    191      2   8  0.100000    35.383455624    34.439253600    26.469730284   0   0  -1 # h
    192      2   8  0.100000    35.309498296    35.748617213    25.189739793   0   0  -1 # h
    193      2   8  0.100000    36.414763420    37.228274828    26.514836584   0   0  -1 # h
    194      2   8  0.100000    35.983322075    36.392417777    28.084784436   0   0  -1 # h
    195      2   8  0.100000    34.196265945    37.596774476    28.155985532   0   0  -1 # h
    196      2   8  0.100000    33.587873885    36.292767176    27.217298864   0   0  -1 # h
    197      2   8  0.100000    33.178841973    37.446996187    25.038795861   0   0  -1 # h
    198      2   8  0.100000    34.370232271    38.775808698    25.586082209   0   0  -1 # h
    199      2   8  0.100000    31.687721774    38.171950991    26.811419183   0   0  -1 # h
    200      2   8  0.100000    31.792926148    39.100935847    25.202363784   0   0  -1 # h
    201      2   8  0.100000    33.029239953    40.009710753    27.963161700   0   0  -1 # h
    202      2   8  0.100000    31.504122411    40.373474449    27.395093825   0   0  -1 # h
    203      2   7  0.280000    33.382204861    40.837481444    25.134030182   0   0  -1 # hn
    204      2   8  0.100000    33.011876104     3.084819321    25.301888250   0   1  -1 # h
    205      2   8  0.100000    34.006790000     1.969554199    24.494565632   0   1  -1 # h
    206      2   8  0.100000    35.176293777     3.827194439    24.859790295   0   1  -1 # h
    207      2   8  0.100000    35.935405209     3.039711866    26.161471775   0   1  -1 # h
    208      2   8  0.100000    34.386850384     4.346140153    27.729995237   0   1  -1 # h
    209      2   8  0.100000    33.820295270     5.057717246    26.231663270   0   1  -1 # h
    210      2   8  0.100000    35.355749489     6.008488498    25.387278562   0   1  -1 # h
    211      2   8  0.100000    36.822988631     5.351484890    26.276724847   0   1  -1 # h
    212      2   7  0.280000    35.781748437     5.793631571    28.930067585   0   1  -1 # hn
    213      2   8  0.100000    34.472994491     8.402115763    29.022997458   0   1  -1 # h
    214      2   8  0.100000    35.810130258     8.714879560    29.670917859   0   1  -1 # h
    215      2   8  0.100000    35.264431266     6.456976201    31.337445688   0   1  -1 # h
    216      2   8  0.100000    33.865071787     6.362196275    30.618929418   0   1  -1 # h
    217      2   8  0.100000    33.243417453     7.729135741    32.425982108   0   1  -1 # h
    218      2   8  0.100000    33.295001634     8.869011590    31.239051571   0   1  -1 # h
    219      2   8  0.100000    34.869969713    10.193498114    32.314215366   0   1  -1 # h
    220      2   8  0.100000    36.093048408     8.938964516    31.754064571   0   1  -1 # h
    221      2   8  0.100000    36.066637385     9.655354312    34.154893998   0   1  -1 # h
    222      2   8  0.100000    36.285908944     7.991009594    33.872983090   0   1  -1 # h
    223      2   8  0.100000    33.915315784     7.566587469    35.082725298   0   1  -1 # h
    224      2   8  0.100000    33.700986003     9.215284559    35.058789997   0   1  -1 # h
    225      2   7  0.280000    36.064340105     7.769524662    36.188058449   0   1  -1 # hn
    226      2   8  0.100000    36.545269532     7.995524008    38.674263568   0   1  -1 # h
    227      2   8  0.100000    35.499873975     8.956308240    39.468849417   0   1  -1 # h
    228      2   8  0.100000    36.472438853    10.929841439    38.064724438   0   1  -1 # h
    229      2   8  0.100000    37.745601686     9.904774562    37.744378845   0   1  -1 # h
    230      2   8  0.100000    36.671091937    10.681666882    40.571202733   0   1  -1 # h
    231      2   8  0.100000    38.103736671    11.443178446    39.744277908   0   1  -1 # h
    232      2   8  0.100000    39.268952663     9.119849621    39.573580581   0   1  -1 # h
    233      2   8  0.100000    38.001428604     8.494352841    40.501670733   0   1  -1 # h
    234      2   9  0.350000    40.309841178     9.110873309     1.984367830   0   1   0 # ho
    235      3   1 -0.500000    22.376295242     7.806530029    27.191245339  -1  -1   1 # n3
    236      3   2  0.020000    21.091617607     7.803157560    27.915338510  -1  -1   1 # c2
    237      3   2 -0.200000    21.263348864     8.686704857    29.144259890  -1  -1   1 # c2
    238      3   2 -0.200000    20.223527420     8.384571315    30.253785946  -1  -1   1 # c2
    239      3   2 -0.200000    18.856507010     9.087815065    30.136248183  -1  -1   1 # c2
    240      3   2 -0.200000    17.787521386     8.384184449    29.144255708  -1  -1   1 # c2
    241      3   2  0.020000    16.650445249     9.408600216    28.828407597  -1  -1   1 # c2
    242      3   3 -0.500000    15.493527973     8.727426355    28.214880517  -1  -1   1 # n
    243      3   4  0.380000    14.758688152     9.294951360    27.128537917  -1  -1   1 # c'
    244      3   2 -0.200000    15.061820231    10.694125231    26.557585258  -1  -1   1 # c2
    245      3   2 -0.200000    15.177757898    10.668084410    25.108549307  -1  -1   1 # c2
    246      3   2 -0.200000    15.398013751    12.005547445    24.281816326  -1  -1   1 # c2
    247      3   2 -0.200000    16.499755040    12.026430711    23.188892682  -1  -1   1 # c2
    248      3   4  0.380000    17.968888068    11.999234442    23.553580885  -1  -1   1 # c'
    249      3   5 -0.380000    13.746116251     8.688219578    26.881881648  -1  -1   1 # o'
    250      3   5 -0.380000    18.704315216    11.261579259    22.865717674  -1  -1   1 # o'
    251      3   3 -0.500000    18.353789156    12.713860169    24.603881718  -1  -1   1 # n
    252      3   2  0.020000    19.648234500    12.499819050    25.296073988  -1  -1   1 # c2
    253      3   2 -0.200000    19.439225595    13.041460412    26.651044855  -1  -1   1 # c2
    254      3   2 -0.200000    20.511876999    12.492403282    27.614624784  -1  -1   1 # c2
    255      3   2 -0.200000    21.804055192    13.265825000    27.497048183  -1  -1   1 # c2
    256      3   2 -0.200000    22.927841782    12.733354736    28.335725526  -1  -1   1 # c2
    257      3   2  0.020000    24.218782324    13.568062691    28.380848580  -1  -1   1 # c2
    258      3   3 -0.500000    23.973506941    14.733772893    29.281984785  -1  -1   1 # n
    259      3   4  0.380000    24.876927060    15.587858327    29.594374225  -1  -1   1 # c'
    260      3   2 -0.200000    26.164220150    15.804364852    28.760997648  -1  -1   1 # c2
    261      3   2 -0.200000    25.982947363    16.414160161    27.311526873  -1  -1   1 # c2
    262      3   2 -0.200000    25.331725757    17.855095168    27.440464655  -1  -1   1 # c2
    263      3   2 -0.200000    25.200769581    18.723418185    26.120478052  -1  -1   1 # c2
    264      3   4  0.380000    24.882200486    20.218368345    26.562045906  -1  -1   1 # c'
    265      3   5 -0.380000    24.553089163    16.345095718    30.507813214  -1  -1   1 # o'
    266      3   5 -0.380000    25.666759386    21.142672674    26.766504160  -1  -1   1 # o'
    267      3   3 -0.500000    23.610223920    20.458797150    26.556180862  -1  -1   1 # n
    268      3   2  0.020000    22.951198097    21.667969660    27.158440012  -1  -1   1 # c2
    269      3   2 -0.200000    21.461744349    21.759499186    26.793192518  -1  -1   1 # c2
    270      3   2 -0.200000    20.747157121    22.979304321    27.790444503  -1  -1   1 # c2
    271      3   2 -0.200000    19.805891769    24.002859184    27.189831937  -1  -1   1 # c2
    272      3   2 -0.200000    19.745299204    25.412215327    27.935565780  -1  -1   1 # c2
    273      3   2  0.020000    18.798515971    25.441661733    29.107145475  -1  -1   1 # c2
    274      3   3 -0.500000    18.854286745    26.738432151    29.706820897  -1  -1   1 # n
    275      3   4  0.380000    17.900234019    27.186150459    30.516059549  -1  -1   1 # c'
    276      3   2 -0.200000    16.653532401    26.540005567    30.984082700  -1  -1   1 # c2
    277      3   2 -0.200000    15.700369194    27.137937600    32.008193035  -1  -1   1 # c2
    278      3   2 -0.200000    16.284386369    27.347864739    33.511924478  -1  -1   1 # c2
    279      3   2 -0.200000    15.173740048    27.766801263    34.530802070  -1  -1   1 # c2
    280      3   4  0.410000    15.923028410    28.204575870    35.810658034  -1  -1   1 # c'
    281      3   5 -0.380000    18.240834335    28.265927957    31.040016290  -1  -1   1 # o'
    282      3   5 -0.380000    17.167125728    28.254378513    35.783419629  -1  -1   1 # o'
    283      3   6 -0.380000    15.012472211    28.656091563    36.801183053  -1  -1   1 # oh
    284      3   7  0.140000    23.152209433     7.215652855    27.562884414  -1  -1   1 # hn
    285      3   7  0.140000    22.333221191     7.476283044    26.242877914  -1  -1   1 # hn